% Model:                Off_center.mph
% Version:              COMSOL 4.1.0.88
% Date:                 Nov 25 2022, 11:31
% Dimension:            2
% Nodes:                11112
% Expressions:          1
% Description:          Surface
% x                       y                        Color
0                         8.884770917893032        0.20000000000000004
0                         5.9231806119286885       0.19999999999999996
0                         2.961590305964344        0.20000000000000018
0                         0                        0.20000000000000068
1.9212307216643527        7.926676094469848        0.2031524703116071
1.9212307216643527        4.965085788505505        0.20315118693267786
1.9212307216643527        2.00349548254116         0.2031499035537489
3.842461443328705         6.968581271046664        0.2063034196581328
3.842461443328706         4.006990965082321        0.20630085290027442
5.763692164993058         6.01048644762348         0.20945284803957706
2.9615903059626185        0                        0.20485554753402696
5.923180611925236         0                        0.20970941789404066
8.884770917887854         0                        0.21456161108004182
4.882821027626971         2.00349548254116         0.2080049317213015
7.844411333589589         2.00349548254116         0.21285828271484147
6.804051749291325         4.00699096508232         0.21115536170135324
0                         17.773989243651794       0.20000000000000004
0                         14.810916468398874       0.20000000000000004
0                         11.847843693145954       0.2
2.1969619671463647        16.30532556192143        0.2036145749420623
2.1969619671463647        13.342252786668507       0.20361077880961675
2.1969619671463647        10.379180011415583       0.2036069826771712
4.3939239342927285        14.836661880191055       0.20722444368882043
4.393923934292729         11.87358910493814        0.20721685142392934
6.590885901439093         13.36799819846069        0.21082960624027444
11.847843693141204        0                        0.21941269011668046
14.81091646839455         0                        0.22425854402313716
17.773989243647897        0                        0.22909917279941205
10.370781947138019        2.5998877072545583       0.21699621637115352
13.333854722391367        2.5998877072545583       0.2218456061230635
16.29692749764471         2.5998877072545583       0.22668977074479163
11.856792976388181        5.199775414509116        0.2194344506465233
14.81986575164153         5.199775414509117        0.22428215111370473
13.342804005638342        7.799663121763674        0.22187631390615126
0                         26.663207570290776       0.20000000000000004
0                         23.70013479474445        0.20000000000000004
0                         20.73706201919812        0.2
2.3026665746506616        25.154882032409393       0.20380637920497735
2.3026665746506616        22.191809256863067       0.2037999937318657
2.3026665746506616        19.228736481316734       0.20379360825875398
4.605333149301323         23.646556494528          0.20760526622904446
4.605333149301323         20.683483718981677       0.20759249528282114
6.907999723951985         22.138230956646613       0.21139666107220134
20.73706201919435         0                        0.23393274270714787
23.70013479474081         0                        0.23875734140735855
26.663207570287266        0                        0.24357296890004418
19.396781429517464        2.3636681571303484       0.23174949956478724
22.359854205063925        2.3636681571303484       0.23657901772631768
25.322926980610376        2.3636681571303484       0.24139956468032292
21.01957361538703         4.727336314260696        0.2344038818047627
23.982646390933496        4.727336314260697        0.23922934822008768
22.642365801256602        7.091004471391044        0.23706231951933845
0                         35.552425896929755       0.20000000000000004
0                         32.589353121383425       0.20000000000000004
0                         29.626280345837102       0.2
2.3682971796948697        34.02756672358603        0.20394013297167518
2.3682971796948697        31.064493948039708       0.20393133774335193
2.3682971796948697        28.101421172493378       0.20392254251502867
4.7365943593897395        32.5027075502423         0.20787030170527643
4.7365943593897395        29.539634774695983       0.20785271124862997
7.104891539084609         30.977848376898578       0.21179050620080384
29.626280345833727        0                        0.24837764773813692
32.58935312138018         0                        0.2531692602970172
35.552425896926636        0                        0.25794780657668515
28.21627966727642         2.3903588039379597       0.24609622927509728
31.179352442822882        2.3903588039379597       0.2508950300008688
34.142425218369326        2.3903588039379597       0.2556807644474278
29.769351764265572        4.780717607875919        0.2486254375888187
32.73242453981203         4.7807176078759195       0.25341836020226893
31.322423861254723        7.171076411813878        0.2511605938412084
0                         44.44164422356874        0.20000000000000004
0                         41.47857144802241        0.20000000000000004
0                         38.51549867247608        0.2
2.370756727298513         42.921382901629634       0.20397529497939787
2.370756727298513         39.95831012608331        0.2039646525137453
2.370756727298513         36.99523735053698        0.20395401004809266
4.741513454597026         41.401121579690525       0.20793895225027156
4.741513454597026         38.43804880414421        0.20791766731896638
7.112270181895539         39.88086025775142        0.21189097181262115
38.51549867247309         0                        0.262711104186796
41.478571448019544        0                        0.2674567484660144
44.441644223566           0                        0.27218473941434024
37.06622738717467         2.407690170906009        0.2603882630160898
40.029300162721135        2.407690170906009        0.26514365115715416
42.992372938267586        2.407690170906009        0.2698813859673259
38.580028877422706        4.815380341812018        0.26283686841464027
41.54310165296918         4.815380341812018        0.26758434708665807
40.09383036767074         7.223070512718027        0.2652936227723366
47.40471699911245         0                        0.27689261297861695
50.3677897746589          0                        0.28157763049069484
53.33086255020537         0                        0.2862397919505739
45.949111102771305        2.406533391680524        0.2745890280456341
48.91218387831776         2.406533391680524        0.27928653610629867
51.875256653864206        2.406533391680524        0.2839611881147643
47.456577981976594        4.813066783361047        0.27700371685350045
50.41965075752307         4.813066783361048        0.2816908594105527
48.96404486118191         7.219600175041571        0.2794288058379391
56.293935325751825        0                        0.29087627947445827
59.257008101298275        0                        0.2954839769767064
62.22008087684473         0                        0.3000628844573185
54.82451260225829         2.402314341930299        0.28858863853329064
57.787585377804746        2.402314341930299        0.2932120480754481
60.750658153351196        2.402314341930299        0.2978066675959693
56.3181626543112          4.804628683860597        0.2909504719492341
59.281235429857674        4.804628683860598        0.2955608035096646
57.81181270636412         7.2069430257908955       0.29332529219840436
65.1831536523912          0                        0.304609797569238
68.14622642793765         0                        0.30912118718256665
71.1092992034841          0                        0.3135970532973044
63.70663810304133         2.39926508519659         0.3023585362000112
66.6697108785878          2.39926508519659         0.3068892445497432
69.63278365413423         2.39926508519659         0.31138442940088434
65.19319532923791         4.79853017039318         0.3046700810609861
68.15626810478437         4.79853017039318         0.3091845846485307
66.67975255543449         7.19779525558977         0.30699751904024325
0                         53.33086255020772        0.20000000000000004
0                         50.36778977466139        0.20000000000000004
0                         47.40471699911506        0.2
2.380429295258547         51.82521845425664        0.20402703570075204
2.380429295258547         48.862145678710334       0.20401500637527084
2.380429295258547         45.899072903164          0.20400297704978965
4.760858590517093         50.31957435830557        0.20804137182905674
4.760858590517094         47.35650158275927        0.20801731317809435
7.14128788577564          48.81393026235452        0.21204300838491405
0                         62.22008087684671        0.20000000000000004
0                         59.257008101300386       0.20000000000000004
0                         56.29393532575404        0.2
2.3851384437344487        60.72355936542666        0.2040731070101091
2.3851384437344487        57.76048658988034        0.20406031151730336
2.3851384437344487        54.797413814334          0.2040475160244976
4.7702768874688966        59.227037854006596       0.20813310171549484
4.770276887468897         56.26396507846028        0.20810751072988343
7.155415331203345         57.73051634258654        0.21217998411615727
74.07237197903058         0                        0.3180337835625003
77.03544475457703         0                        0.3224274457681539
79.99851753012348         0                        0.3267780399142652
72.59198003076276         2.3984462168519833       0.3158348485365763
75.55505280630923         2.3984462168519833       0.3202518244057377
78.51812558185567         2.3984462168519833       0.3246257322153566
74.07466085804141         4.796892433703966        0.31809179755973843
77.03773363358789         4.796892433703967        0.3224890190328652
75.55734168532007         7.195338650555949        0.3203679003667908
0                         71.1092992034857         0.20000000000000004
0                         68.14622642793938        0.20000000000000004
0                         65.18315365239303        0.2
2.3888307881609823        69.61794360894345        0.20411810079893727
2.3888307881609823        66.65487083339713        0.20410521875208582
2.3888307881609823        63.691798057850775       0.20409233670523436
4.777661576321964         68.1265880144012         0.20822336316878812
4.7776615763219645        65.16351523885487        0.20819759907508523
7.166492364482946         66.63523241985894        0.21231578710955254
82.96159030566996         0                        0.3310815586935921
85.92466308121638         0                        0.33533372289274566
88.88773585676284         0                        0.3395345325117259
81.48059574515815         2.3981604466838005       0.32895189211415776
84.44366852070462         2.3981604466838005       0.33323167292549766
87.40674129625106         2.3981604466838005       0.3374600991566641
82.96267396019282         4.7963208933676          0.33114842463760696
85.92574673573931         4.796320893367601        0.3354044674809597
84.44475217522752         7.194481340051401        0.3333676374846127
0                         79.9985175301247         0.20000000000000004
0                         77.03544475457838        0.20000000000000004
0                         74.07237197903204        0.2
2.392649623898108         78.51091351503737        0.20416183144312222
2.392649623898108         75.54784073949105        0.2041495809110239
2.392649623898108         72.5847679639447         0.2041373303789255
4.785299247796216         77.02330949995005        0.20831182002950688
4.785299247796216         74.06023672440372        0.2082873189653102
7.177948871694324         75.53570548486273        0.21244996575915395
91.85080863230931         0                        0.3436796504017777
94.81388140785575         0                        0.3477645644054901
97.77695418340221         0                        0.35178927452286307
90.36945185882244         2.3979599861094476       0.34163254386657643
93.33252463436891         2.3979599861094476       0.3457496027124054
96.29559740991535         2.3979599861094476       0.3498064576718948
91.85116786088201         4.795919972218895        0.3437569484499957
94.81424063642851         4.795919972218895        0.3478459482516017
93.33288386294163         7.193879958328343        0.3459077462619837
0                         88.8877358567637         0.20000000000000004
0                         85.92466308121736        0.20000000000000004
0                         82.96159030567102        0.2
2.3953432908298904        87.4027741849239         0.20419994135190067
2.3953432908298904        84.43970140937756        0.20418904921386227
2.3953432908298904        81.47662863383123        0.20417815707582382
4.79068658165978          85.9178125130841         0.20838974273743016
4.790686581659781         82.95473973753778        0.20836795846135336
7.18602987248967          84.4328508412443         0.21256940415658845
100.74002695894866        0                        0.355749241387413
103.70309973449511        0                        0.35963990096392584
106.66617251004158        0                        0.36346125325240175
99.25849424813134         2.3975638427071573       0.3537985513625149
102.2215670236778         2.3975638427071573       0.3577259234820377
105.18463979922424        2.3975638427071577       0.3615839883135234
100.74003431286046        4.7951276854143146       0.35583795510613886
103.70310708840695        4.7951276854143146       0.3597327324806344
102.22157437758959        7.192691528121472        0.3579074857537348
0                         97.7769541834027         0.20000000000000004
0                         94.81388140785636        0.20000000000000004
0                         91.85080863231002        0.2
2.39687286087971          96.29382978600165        0.20423026700573665
2.39687286087971          93.33075701045534        0.20422141018135206
2.39687286087971          90.36768423490899        0.20421255335696736
4.793745721759419         94.81070538860062        0.20845272998025
4.79374572175942          91.84763261305433        0.2084350163314807
7.190618582639129         93.32758099119961        0.21266738892353998
0                         106.66617251004168       0.20000000000000004
0                         103.70309973449534       0.20000000000000004
0                         100.740026958949         0.2
2.397600513032352         105.18408018593418       0.20425164938222645
2.397600513032352         102.22100741038786       0.20424539770455863
2.397600513032352         99.25793463484152        0.2042391460268908
4.795201026064703         103.70198786182667       0.20849833242557386
4.795201026064704         100.73891508628037       0.20848582907023824
7.192801539097055         102.21989553771918       0.21274004913004232
109.62924528558803        0                        0.3672087519344329
112.59231806113448        0                        0.37087802651382373
115.55539083668094        0                        0.374469076990574
108.14771308279164        2.396457816291901        0.365368393607049
111.11078585833809        2.396457816291901        0.36907873719613593
114.07385863388453        2.396457816291901        0.3727108566825824
109.62925365554169        4.792915632583801        0.367309179249245
112.59232643108817        4.792915632583802        0.3709823677453878
111.11079422829175        7.189373448875703        0.3692836101789901
118.51846361222741        0                        0.3779776067845063
121.48153638777384        0                        0.38139972982759957
124.44460916332031        0                        0.38473544611985383
117.03701870710222        2.395051150948565        0.37626072010453304
120.00009148264868        2.395051150948565        0.3797277665294697
122.96316425819512        2.395051150948565        0.38310840620356723
118.5186465775235         4.790102301897129        0.37808907646998235
121.48171935306999        4.79010230189713         0.38151463952592324
120.00027444794478        7.185153452845694        0.37995414608692196
0                         115.55539083668067       0.20000000000000004
0                         112.59231806113435       0.20000000000000004
0                         109.629245285588         0.2
2.397716048977421         114.0737489064706        0.20426308934473708
2.397716048977421         111.11067613092429       0.20425985542972747
2.397716048977421         108.14760335537794       0.20425662151471785
4.795432097954842         112.5921069762605        0.2085243767351197
4.795432097954842         109.6290342007142        0.20851790890510052
7.193148146932264         111.11046504605042       0.21278386217114795
0                         124.44460916331967       0.20000000000000004
0                         121.48153638777335       0.20000000000000004
0                         118.51846361222701       0.2
2.397382131087842         122.96306655531156       0.2042641205821747
2.397382131087842         119.99999377976523       0.20426412057253798
2.397382131087842         117.03692100421888       0.20426412056290127
4.794764262175683         121.48152394730344       0.20852972263998176
4.794764262175684         118.51845117175714       0.20852972262070835
7.192146393263525         119.99998133929533       0.21279680617342114
127.40768193886676        0                        0.3879810048846129
130.3707547144132         0                        0.3911333038151608
133.33382748995967        0                        0.3941923429114977
125.92568550858931        2.3937256473825768       0.3863984058395002
128.88875828413578        2.3937256473825768       0.3895987040862554
131.85183105968224        2.3937256473825768       0.39270574249879947
127.4067618538583         4.787451294765153        0.38810048334916936
130.36983462940478        4.7874512947651535       0.3912555210779207
128.8878381991273         7.181176942147729        0.38984167864886127
136.29690026550614        0                        0.39715521270716314
139.25997304105258        0                        0.40001985272755325
142.22304581659904        0                        0.402786262972668
134.81406566121072        2.3927802249946843       0.39571585005639814
137.7771384367572         2.3927802249946843       0.39863052326301734
140.74021121230365        2.392780224994685        0.401446966694361
136.29430383246176        4.785560449989369        0.3972800177019534
139.25737660800826        4.785560449989369        0.40014649431952626
137.7745420037128         7.178340674984053        0.3988848458481635
0                         133.33382748995865       0.20000000000000004
0                         130.37075471441236       0.20000000000000004
0                         127.407681938866         0.2
2.3967009442547114        131.8522682056059        0.20425481959640146
2.3967009442547114        128.88919543005957       0.20425805204824027
2.3967009442547114        125.92612265451322       0.20426128450007897
4.793401888509422         130.3707089212531        0.2085143023719093
4.793401888509423         127.40763614570682       0.20852076727558683
7.190102832764134         128.88914963690036       0.21277844832652346
0                         142.22304581659765       0.20000000000000004
0                         139.25997304105135       0.20000000000000004
0                         136.29690026550497       0.2
2.3956398824608236        140.74143386998747       0.2042356810650226
2.3956398824608236        137.77836109444118       0.20424192728080506
2.3956398824608236        134.81528831889483       0.2042481734965875
4.791279764921647         139.2598219233773        0.20847889370888703
4.791279764921647         136.296749147831         0.20849138614045196
7.186919647382471         137.77820997676716       0.2127296379315933
145.1861185921455         0                        0.40545261852173764
148.14919136769197        0                        0.40801806598467416
151.1122641432384         0                        0.41048260536147757
143.7032415735496         2.392014015206298        0.4041633346723675
146.66631434909607        2.392014015206298        0.40677960933139223
149.6293871246425         2.392014015206298        0.40929497590428376
145.18343733050017        4.784028030412595        0.40558157672431794
148.14651010604663        4.784028030412596        0.40814777049329776
146.6636330874507         7.176042045618893        0.4070409891285193
154.07533691878487        0                        0.4128456366120769
157.0384096943313         0                        0.4151075472975867
160.00148246987777        0                        0.4172683374180071
152.59303164094445        2.390391851421253        0.4117092178192262
155.5561044164909         2.390391851421253        0.4140214868601833
158.51917719203732        2.390391851421253        0.4162326353360509
154.07379913865046        4.7807837028425055       0.41297641102270427
157.03687191419695        4.780783702842506        0.41523791785401915
155.55456663635647        7.171175554263759        0.4142841849719117
145.8072244572443         116.24722841746483       0.585657439962353
145.53491558571787        116.48160067767675       0.585237190224017
145.28157607840572        116.73494208812758       0.5848462181297935
145.04720593530783        117.00725264881733       0.5844845236796825
145.47514823124814        116.1684941933944        0.5817674193154272
145.21232404182888        116.4123510287258        0.5813781789867455
144.96846921662384        116.67517701429605       0.5810182163021762
145.14307200525198        116.08975996932395       0.5779834141345715
144.88973249793986        116.34310137977481       0.5776251832155441
144.81099577925582        116.01102574525352       0.5743054244197862
0                         151.11226414323664       0.20000000000000004
0                         148.1491913676903        0.20000000000000004
0                         145.18611859214397       0.2
2.3941185687887385        149.63056283307284       0.20420771848927508
2.3941185687887385        146.66749005752652       0.20421656438070862
2.3941185687887385        143.70441728198017       0.2042254102721422
4.788237137577477         148.14886152290904       0.20842534315020597
4.788237137577477         145.18578874736275       0.2084430349330731
7.182355706366216         146.66716021274524       0.21265287398279262
0                         160.00148246987564       0.20000000000000004
0                         157.03840969432932       0.20000000000000004
0                         154.075336918783         0.2
2.3922473666650887        158.51972113137973       0.20417277121041327
2.3922473666650887        155.55664835583346       0.20418364816153062
2.3922473666650887        152.5935755802871        0.2041945251126479
4.7844947333301775        157.03795979288384       0.20835719614275178
4.7844947333301775        154.07488701733757       0.2083789500449864
7.176742099995266         155.55619845438795       0.21255327479701555
162.9645552454242         0                        0.4193286354182167
165.92762802097067        0                        0.4212899605390289
168.89070079651714        0                        0.4231523127804439
161.48300169754947        2.386775593982069        0.4183436282720965
164.44607447309596        2.386775593982069        0.4203537141426813
167.40914724864237        2.3867755939820694       0.4222648271338687
162.96452092522117        4.773551187964138        0.4194578797349031
165.92759370076763        4.773551187964138        0.4214177534758632
164.44604015289286        7.160326781946207        0.42061109180642714
171.8537735720636         0                        0.4249174103543479
174.81684634761004        0                        0.4265876695994697
177.7799191231565         0                        0.4281630905158094
170.3734581873257         2.3811345030442004       0.4240791396809148
173.3365309628722         2.3811345030442004       0.42579566800484475
176.29960373841863        2.3811345030442004       0.42741735799999225
171.85621557813425        4.7622690060884          0.4250424990271854
174.8192883536808         4.762269006088401        0.42671045810114094
173.33897296894284        7.1434035091326          0.42604239081925527
146.71731735589844        115.6753690326274        0.5870527176118391
146.40224787009325        115.84166139255858       0.5865696192501272
146.09888357054186        116.0322811875044        0.5861045267002984
146.41108269245242        115.52471436452711       0.5831412917210324
146.10186579977417        115.7031704419656        0.5826863836259877
145.8043540933497         115.90595395441869       0.5822494813428258
146.1048480290064         115.3740596964268        0.5793401031751164
145.8014837294551         115.5646794913726        0.5789133853467385
145.79861336556044        115.22340502832648       0.5756491519740908
147.73186389838543        115.3203541513884        0.5885958268867316
147.39061998781466        115.41134506147674       0.5880765611941164
147.05243780698564        115.52968335522306       0.5875621914358189
147.46682528917046        115.1053285289621        0.584678929986703
147.1271122434706         115.20999313087945       0.5841830856484146
146.79046092751247        115.34200511645479       0.5836921372444436
147.20178667995552        114.8903029065358        0.5808756815197604
146.86360449912655        115.00864120028217       0.5804032585357985
146.93674807074058        114.67527728410951       0.5771860814859037
144.83226678320315        117.29890471398798       0.5841509177026325
144.64165374879758        117.60226113946729       0.5838551400823374
144.47536683209114        117.91732192525528       0.5835971908187972
144.7075682344112         117.00544015391132       0.5806563073177711
144.50479214115614        117.30294439923632       0.5803541563316577
144.32634216560012        117.61215300486994       0.5800898337022988
144.3679305335146         117.0036276590053        0.576926800097896
144.1773174991091         117.30698408448464       0.576656104102719
144.02829283261804        117.00181516409928       0.5732960020200571
0                         168.89070079651464       0.20000000000000004
0                         165.9276280209683        0.20000000000000004
0                         162.96455524542196       0.2
2.3905335218210872        167.40909292733573       0.20413369737736978
2.3905335218210872        164.4460201517894        0.20414593599966946
2.3905335218210872        161.48294737624306       0.2041581746219691
4.7810670436421745        165.92748505815683       0.20828009140532217
4.7810670436421745        162.96441228261054       0.20830456864992153
7.171600565463262         164.44587718897796       0.21243918208385715
0                         177.77991912315363       0.20000000000000004
0                         174.8168463476073        0.20000000000000004
0                         171.85377357206096       0.2
2.3905473595217424        176.29912179875373       0.2040953169410747
2.3905473595217424        173.33604902320744       0.20410820781712172
2.3905473595217424        170.3729762476611        0.2041210986931687
4.781094719043484         174.8183244743538        0.208203648496223
4.781094719043485         171.85525169880754       0.20822943024831705
7.171642078565227         173.3375271499539        0.21232499466544494
180.74299189870294        0                        0.42964622505801453
183.7060646742494         0                        0.4310400709667224
186.66913744979587        0                        0.4323446282419332
179.26447957728408        2.3755431694733398       0.4289473590304196
182.22755235283057        2.3755431694733398       0.4303844085881581
185.190625128377          2.3755431694733398       0.43173216951239946
180.74904003141168        4.7510863389466795       0.42976532657226013
183.71211280695817        4.7510863389466795       0.4311562911455321
182.2336004855393         7.126629508420019        0.43061699314133106
148.8                     115.2                    0.5902029810056176
148.45031016631287        115.21241288752903       0.5896771867560746
148.09426479910798        115.25253093799179       0.589141468716446
148.589449955704          114.93138058874834       0.5862986986381704
148.236582355258          114.95764605774426       0.585788933623809
147.87735922129428        115.01161668967393       0.5852692448193617
148.37889991140798        114.66276117749666       0.582509390865732
148.02285454420317        114.7028792279595        0.5820156550865521
148.168349867112          114.394141766245         0.5788350576883025
144.32968387394033        118.25243644381041       0.5833699563608502
144.2113473360169         118.59061262267092       0.5831856651844213
144.12035721832086        118.9318504618368        0.5830443172895109
144.14201573181444        117.99046639404027       0.5797929988266046
144.01000598377735        118.3271117427481        0.5795955075242404
143.9053426559676         118.66681875176126       0.5794409595033944
143.8086646315377         118.06361086282521       0.5760847253985744
143.6903280936143         118.40178704168576       0.5759169772517929
143.475313531261          118.13675533161022       0.5724723705347062
0                         186.66913744979263       0.20000000000000004
0                         183.70606467424628       0.20000000000000004
0                         180.74299189869993       0.2